 Entering Gaussian System, Link 0=g09
 Input=ch4.com
 Output=ch4.log
 Initial command:
 /home/sara/bin/gaussian/g09/l1.exe "/home/sara/bin/gaussian/scratch/Gau-7558.inp" -scrdir="/home/sara/bin/gaussian/scratch/"
 Entering Link 1 = /home/sara/bin/gaussian/g09/l1.exe PID=      7560.
  
 Copyright (c) 1988,1990,1992,1993,1995,1998,2003,2009,2013,
            Gaussian, Inc.  All Rights Reserved.
  
 This is part of the Gaussian(R) 09 program.  It is based on
 the Gaussian(R) 03 system (copyright 2003, Gaussian, Inc.),
 the Gaussian(R) 98 system (copyright 1998, Gaussian, Inc.),
 the Gaussian(R) 94 system (copyright 1995, Gaussian, Inc.),
 the Gaussian 92(TM) system (copyright 1992, Gaussian, Inc.),
 the Gaussian 90(TM) system (copyright 1990, Gaussian, Inc.),
 the Gaussian 88(TM) system (copyright 1988, Gaussian, Inc.),
 the Gaussian 86(TM) system (copyright 1986, Carnegie Mellon
 University), and the Gaussian 82(TM) system (copyright 1983,
 Carnegie Mellon University). Gaussian is a federally registered
 trademark of Gaussian, Inc.
  
 This software contains proprietary and confidential information,
 including trade secrets, belonging to Gaussian, Inc.
  
 This software is provided under written license and may be
 used, copied, transmitted, or stored only in accord with that
 written license.
  
 The following legend is applicable only to US Government
 contracts under FAR:
  
                    RESTRICTED RIGHTS LEGEND
  
 Use, reproduction and disclosure by the US Government is
 subject to restrictions as set forth in subparagraphs (a)
 and (c) of the Commercial Computer Software - Restricted
 Rights clause in FAR 52.227-19.
  
 Gaussian, Inc.
 340 Quinnipiac St., Bldg. 40, Wallingford CT 06492
  
  
 ---------------------------------------------------------------
 Warning -- This program may not be used in any manner that
 competes with the business of Gaussian, Inc. or will provide
 assistance to any competitor of Gaussian, Inc.  The licensee
 of this program is prohibited from giving any competitor of
 Gaussian, Inc. access to this program.  By using this program,
 the user acknowledges that Gaussian, Inc. is engaged in the
 business of creating and licensing software in the field of
 computational chemistry and represents and warrants to the
 licensee that it is not a competitor of Gaussian, Inc. and that
 it will not use this program in any manner prohibited above.
 ---------------------------------------------------------------
  

 Cite this work as:
 Gaussian 09, Revision D.01,
 M. J. Frisch, G. W. Trucks, H. B. Schlegel, G. E. Scuseria, 
 M. A. Robb, J. R. Cheeseman, G. Scalmani, V. Barone, B. Mennucci, 
 G. A. Petersson, H. Nakatsuji, M. Caricato, X. Li, H. P. Hratchian, 
 A. F. Izmaylov, J. Bloino, G. Zheng, J. L. Sonnenberg, M. Hada, 
 M. Ehara, K. Toyota, R. Fukuda, J. Hasegawa, M. Ishida, T. Nakajima, 
 Y. Honda, O. Kitao, H. Nakai, T. Vreven, J. A. Montgomery, Jr., 
 J. E. Peralta, F. Ogliaro, M. Bearpark, J. J. Heyd, E. Brothers, 
 K. N. Kudin, V. N. Staroverov, T. Keith, R. Kobayashi, J. Normand, 
 K. Raghavachari, A. Rendell, J. C. Burant, S. S. Iyengar, J. Tomasi, 
 M. Cossi, N. Rega, J. M. Millam, M. Klene, J. E. Knox, J. B. Cross, 
 V. Bakken, C. Adamo, J. Jaramillo, R. Gomperts, R. E. Stratmann, 
 O. Yazyev, A. J. Austin, R. Cammi, C. Pomelli, J. W. Ochterski, 
 R. L. Martin, K. Morokuma, V. G. Zakrzewski, G. A. Voth, 
 P. Salvador, J. J. Dannenberg, S. Dapprich, A. D. Daniels, 
 O. Farkas, J. B. Foresman, J. V. Ortiz, J. Cioslowski, 
 and D. J. Fox, Gaussian, Inc., Wallingford CT, 2013.
 
 ******************************************
 Gaussian 09:  EM64L-G09RevD.01 24-Apr-2013
                23-Nov-2020 
 ******************************************
 -------------------
 # hf/3-21g pop=nbo6
 -------------------
 1/38=1/1;
 2/12=2,17=6,18=5,40=1/2;
 3/5=5,11=9,16=1,25=1,30=1/1,2,3;
 4//1;
 5/5=2,38=5/2;
 6/7=2,8=2,9=2,10=2,28=1,40=1,113=1,114=1,124=3103/1,12;
 99/5=1,9=1/99;
 -------------------
 Title Card Required
 -------------------
 Symbolic Z-matrix:
 Charge =  0 Multiplicity = 1
 C                     1.07476   1.65994   0.0358 
 H                     1.43142   0.65113   0.0358 
 H                     1.43144   2.16434   0.90945 
 H                     1.43144   2.16434  -0.83785 
 H                     0.00476   1.65996   0.0358 
 
                          Input orientation:                          
 ---------------------------------------------------------------------
 Center     Atomic      Atomic             Coordinates (Angstroms)
 Number     Number       Type             X           Y           Z
 ---------------------------------------------------------------------
      1          6           0        1.074764    1.659942    0.035800
      2          1           0        1.431418    0.651132    0.035800
      3          1           0        1.431437    2.164340    0.909452
      4          1           0        1.431437    2.164340   -0.837851
      5          1           0        0.004764    1.659955    0.035800
 ---------------------------------------------------------------------
                    Distance matrix (angstroms):
                    1          2          3          4          5
     1  C    0.000000
     2  H    1.070000   0.000000
     3  H    1.070000   1.747302   0.000000
     4  H    1.070000   1.747302   1.747303   0.000000
     5  H    1.070000   1.747303   1.747303   1.747303   0.000000
 Stoichiometry    CH4
 Framework group  T[O(C),4C3(H)]
 Deg. of freedom     1
 Full point group                 T       NOp  12
 Largest Abelian subgroup         D2      NOp   4
 Largest concise Abelian subgroup D2      NOp   4
                         Standard orientation:                         
 ---------------------------------------------------------------------
 Center     Atomic      Atomic             Coordinates (Angstroms)
 Number     Number       Type             X           Y           Z
 ---------------------------------------------------------------------
      1          6           0        0.000000    0.000000    0.000000
      2          1           0        0.617765    0.617765    0.617765
      3          1           0       -0.617765   -0.617765    0.617765
      4          1           0       -0.617765    0.617765   -0.617765
      5          1           0        0.617765   -0.617765   -0.617765
 ---------------------------------------------------------------------
 Rotational constants (GHZ):    164.2463791    164.2463791    164.2463791
 Standard basis: 3-21G (6D, 7F)
 There are     5 symmetry adapted cartesian basis functions of A   symmetry.
 There are     4 symmetry adapted cartesian basis functions of B1  symmetry.
 There are     4 symmetry adapted cartesian basis functions of B2  symmetry.
 There are     4 symmetry adapted cartesian basis functions of B3  symmetry.
 There are     5 symmetry adapted basis functions of A   symmetry.
 There are     4 symmetry adapted basis functions of B1  symmetry.
 There are     4 symmetry adapted basis functions of B2  symmetry.
 There are     4 symmetry adapted basis functions of B3  symmetry.
    17 basis functions,    27 primitive gaussians,    17 cartesian basis functions
     5 alpha electrons        5 beta electrons
       nuclear repulsion energy        13.6865185780 Hartrees.
 NAtoms=    5 NActive=    5 NUniq=    2 SFac= 4.00D+00 NAtFMM=   60 NAOKFM=F Big=F
 Integral buffers will be    131072 words long.
 Raffenetti 1 integral format.
 Two-electron integral symmetry is turned on.
 One-electron integrals computed using PRISM.
 NBasis=    17 RedAO= T EigKep=  4.03D-02  NBF=     5     4     4     4
 NBsUse=    17 1.00D-06 EigRej= -1.00D+00 NBFU=     5     4     4     4
 ExpMin= 1.83D-01 ExpMax= 1.72D+02 ExpMxC= 1.72D+02 IAcc=1 IRadAn=         1 AccDes= 0.00D+00
 Harris functional with IExCor=  205 and IRadAn=       1 diagonalized for initial guess.
 HarFok:  IExCor=  205 AccDes= 0.00D+00 IRadAn=         1 IDoV= 1 UseB2=F ITyADJ=14
 ICtDFT=  3500011 ScaDFX=  1.000000  1.000000  1.000000  1.000000
 FoFCou: FMM=F IPFlag=           0 FMFlag=      100000 FMFlg1=           0
         NFxFlg=           0 DoJE=T BraDBF=F KetDBF=T FulRan=T
         wScrn=  0.000000 ICntrl=     500 IOpCl=  0 I1Cent=   200000004 NGrid=           0
         NMat0=    1 NMatS0=      1 NMatT0=    0 NMatD0=    1 NMtDS0=    0 NMtDT0=    0
 Petite list used in FoFCou.
 Initial guess orbital symmetries:
       Occupied  (A) (A) (T) (T) (T)
       Virtual   (A) (T) (T) (T) (T) (T) (T) (A) (T) (T) (T) (A)
 The electronic state of the initial guess is 1-A.
 Keep R1 ints in memory in symmetry-blocked form, NReq=837195.
 Requested convergence on RMS density matrix=1.00D-08 within 128 cycles.
 Requested convergence on MAX density matrix=1.00D-06.
 Requested convergence on             energy=1.00D-06.
 No special actions if energy rises.
 SCF Done:  E(RHF) =  -39.9764058483     A.U. after    8 cycles
            NFock=  8  Conv=0.23D-09     -V/T= 2.0003

 **********************************************************************

            Population analysis using the SCF density.

 **********************************************************************

 Orbital symmetries:
       Occupied  (A) (A) (T) (T) (T)
       Virtual   (A) (T) (T) (T) (T) (T) (T) (A) (T) (T) (T) (A)
 The electronic state is 1-A.
 Alpha  occ. eigenvalues --  -11.13826  -0.95125  -0.54830  -0.54830  -0.54830
 Alpha virt. eigenvalues --    0.30001   0.35670   0.35670   0.35670   0.91538
 Alpha virt. eigenvalues --    0.91538   0.91538   1.35396   1.37170   1.37170
 Alpha virt. eigenvalues --    1.37170   1.96130
          Condensed to atoms (all electrons):
               1          2          3          4          5
     1  C    5.313108   0.372312   0.372312   0.372312   0.372312
     2  H    0.372312   0.505758  -0.026219  -0.026219  -0.026219
     3  H    0.372312  -0.026219   0.505758  -0.026219  -0.026219
     4  H    0.372312  -0.026219  -0.026219   0.505758  -0.026219
     5  H    0.372312  -0.026219  -0.026219  -0.026219   0.505758
 Mulliken charges:
               1
     1  C   -0.802355
     2  H    0.200589
     3  H    0.200589
     4  H    0.200589
     5  H    0.200589
 Sum of Mulliken charges =   0.00000
 Mulliken charges with hydrogens summed into heavy atoms:
               1
     1  C    0.000000
 Electronic spatial extent (au):  <R**2>=             34.9949
 Charge=              0.0000 electrons
 Dipole moment (field-independent basis, Debye):
    X=              0.0000    Y=              0.0000    Z=              0.0000  Tot=              0.0000
 Quadrupole moment (field-independent basis, Debye-Ang):
   XX=             -8.3575   YY=             -8.3575   ZZ=             -8.3575
   XY=              0.0000   XZ=              0.0000   YZ=              0.0000
 Traceless Quadrupole moment (field-independent basis, Debye-Ang):
   XX=              0.0000   YY=              0.0000   ZZ=              0.0000
   XY=              0.0000   XZ=              0.0000   YZ=              0.0000
 Octapole moment (field-independent basis, Debye-Ang**2):
  XXX=              0.0000  YYY=              0.0000  ZZZ=              0.0000  XYY=              0.0000
  XXY=              0.0000  XXZ=              0.0000  XZZ=              0.0000  YZZ=              0.0000
  YYZ=              0.0000  XYZ=              0.6836
 Hexadecapole moment (field-independent basis, Debye-Ang**3):
 XXXX=            -15.0377 YYYY=            -15.0377 ZZZZ=            -15.0377 XXXY=              0.0000
 XXXZ=              0.0000 YYYX=              0.0000 YYYZ=              0.0000 ZZZX=              0.0000
 ZZZY=              0.0000 XXYY=             -4.5929 XXZZ=             -4.5929 YYZZ=             -4.5929
 XXYZ=              0.0000 YYXZ=              0.0000 ZZXY=              0.0000
 N-N= 1.368651857799D+01 E-N=-1.198200651845D+02  KE= 3.996302503385D+01
 Symmetry A    KE= 3.424875328469D+01
 Symmetry B1   KE= 1.904757249720D+00
 Symmetry B2   KE= 1.904757249720D+00
 Symmetry B3   KE= 1.904757249720D+00
 Running external command "gaunbo6 R"
         input file       "/home/sara/bin/gaussian/scratch/Gau-7560.EIn"
         output file      "/home/sara/bin/gaussian/scratch/Gau-7560.EOu"
         message file     "/home/sara/bin/gaussian/scratch/Gau-7560.EMs"
         fchk file        "/home/sara/bin/gaussian/scratch/Gau-7560.EFC"
         mat. el file     "/home/sara/bin/gaussian/scratch/Gau-7560.EUF"

 Writing Wrt12E file "/home/sara/bin/gaussian/scratch/Gau-7560.EUF"
 Gaussian matrix elements                                         Version   1 NLab= 7 Len12L=8 Len4L=8
 Write GAUSSIAN SCALARS               from file   501 offset           0 to matrix element file.
 Write OVERLAP                        from file   514 offset           0 to matrix element file.
 Write CORE HAMILTONIAN ALPHA         from file   515 offset           0 to matrix element file.
 Write CORE HAMILTONIAN BETA          from file   515 offset         153 to matrix element file.
 Write KINETIC ENERGY                 from file   516 offset           0 to matrix element file.
 Write ORTHOGONAL BASIS               from file   685 offset           0 to matrix element file.
 Write DIPOLE INTEGRALS               from file   518 offset           0 to matrix element file.
 Array DIP VEL INTEGRALS               on  file    572 does not exist.
 Array R X DEL INTEGRALS               on  file    572 does not exist.
 Write ALPHA ORBITAL ENERGIES         from file     0 offset           0 to matrix element file.
 Write ALPHA MO COEFFICIENTS          from file 10524 offset           0 to matrix element file.
 Write ALPHA DENSITY MATRIX           from file     0 offset           0 to matrix element file.
 Write ALPHA SCF DENSITY MATRIX       from file 10528 offset           0 to matrix element file.
 Write ALPHA FOCK MATRIX              from file 10536 offset           0 to matrix element file.
 No 2e integrals to process.
 Perform NBO analysis...

 *********************************** NBO 6.0 ***********************************
             N A T U R A L   A T O M I C   O R B I T A L   A N D
          N A T U R A L   B O N D   O R B I T A L   A N A L Y S I S
 ***************** Theoretical Chemical Physics Group (100788) *****************
  (c) Copyright 1996-2015 Board of Regents of the University of Wisconsin System
      on behalf of the Theoretical Chemistry Institute.  All rights reserved.

          Cite this program as:

          NBO 6.0.  E. D. Glendening, J. K. Badenhoop, A. E. Reed,
          J. E. Carpenter, J. A. Bohmann, C. M. Morales, C. R. Landis,
          and F. Weinhold (Theoretical Chemistry Institute, University
          of Wisconsin, Madison, WI, 2013); http://nbo6.chem.wisc.edu/

 Filename set to /home/sara/bin/gaussian/scratch/Gau-7560

 Job title:  Title Card Required


 NATURAL POPULATIONS:  Natural atomic orbital occupancies

  NAO Atom No lang   Type(AO)    Occupancy      Energy
 -------------------------------------------------------
   1    C  1  s      Cor( 1s)     1.99894     -10.98763
   2    C  1  s      Val( 2s)     1.13985      -0.28394
   3    C  1  s      Ryd( 3s)     0.00000       1.93577
   4    C  1  px     Val( 2p)     1.24861      -0.07925
   5    C  1  px     Ryd( 3p)     0.00000       0.98025
   6    C  1  py     Val( 2p)     1.24861      -0.07925
   7    C  1  py     Ryd( 3p)     0.00000       0.98025
   8    C  1  pz     Val( 2p)     1.24861      -0.07925
   9    C  1  pz     Ryd( 3p)     0.00000       0.98025

  10    H  2  s      Val( 1s)     0.77822       0.16828
  11    H  2  s      Ryd( 2s)     0.00062       0.94298

  12    H  3  s      Val( 1s)     0.77822       0.16828
  13    H  3  s      Ryd( 2s)     0.00062       0.94298

  14    H  4  s      Val( 1s)     0.77822       0.16828
  15    H  4  s      Ryd( 2s)     0.00062       0.94298

  16    H  5  s      Val( 1s)     0.77822       0.16828
  17    H  5  s      Ryd( 2s)     0.00062       0.94298

   1 low occupancy (<1.9990e) core orbital  found on  C  1


 Summary of Natural Population Analysis:

                                     Natural Population
             Natural    ---------------------------------------------
  Atom No    Charge        Core      Valence    Rydberg      Total
 --------------------------------------------------------------------
    C  1   -0.88462      1.99894     4.88568    0.00000     6.88462
    H  2    0.22116      0.00000     0.77822    0.00062     0.77884
    H  3    0.22116      0.00000     0.77822    0.00062     0.77884
    H  4    0.22116      0.00000     0.77822    0.00062     0.77884
    H  5    0.22116      0.00000     0.77822    0.00062     0.77884
 ====================================================================
 * Total *  0.00000      1.99894     7.99857    0.00249    10.00000

                                 Natural Population
 ---------------------------------------------------------
   Core                       1.99894 ( 99.9472% of    2)
   Valence                    7.99857 ( 99.9821% of    8)
   Natural Minimal Basis      9.99751 ( 99.9751% of   10)
   Natural Rydberg Basis      0.00249 (  0.0249% of   10)
 ---------------------------------------------------------

    Atom No         Natural Electron Configuration
 ----------------------------------------------------------------------------
      C  1      [core]2s( 1.14)2p( 3.75)
      H  2            1s( 0.78)
      H  3            1s( 0.78)
      H  4            1s( 0.78)
      H  5            1s( 0.78)


 NATURAL BOND ORBITAL ANALYSIS:

                            Occupancies       Lewis Structure    Low   High
         Max    Occ     -------------------  -----------------   occ   occ
  Cycle  Ctr   Thresh    Lewis   non-Lewis     CR  BD  nC  LP    (L)   (NL)
 ============================================================================
    1     2     1.90     9.99295   0.00705      1   4   0   0     0      0
 ----------------------------------------------------------------------------

 Structure accepted: No low occupancy Lewis orbitals

 -------------------------------------------------------
   Core                      1.99894 ( 99.947% of   2)
   Valence Lewis             7.99400 ( 99.925% of   8)
  ==================      =============================
   Total Lewis               9.99295 ( 99.929% of  10)
  -----------------------------------------------------
   Valence non-Lewis         0.00456 (  0.046% of  10)
   Rydberg non-Lewis         0.00249 (  0.025% of  10)
  ==================      =============================
   Total non-Lewis           0.00705 (  0.071% of  10)
 -------------------------------------------------------


     (Occupancy)   Bond orbital / Coefficients / Hybrids
 ------------------ Lewis ------------------------------------------------------
   1. (1.99894) CR ( 1) C  1            s(100.00%)
                                         1.0000  0.0000  0.0000  0.0000  0.0000
                                         0.0000  0.0000  0.0000  0.0000
   2. (1.99850) BD ( 1) C  1- H  2
               ( 61.09%)   0.7816* C  1 s( 25.00%)p 3.00( 75.00%)
                                         0.0000  0.5000  0.0000  0.5000  0.0000
                                         0.5000  0.0000  0.5000  0.0000
               ( 38.91%)   0.6237* H  2 s(100.00%)
                                         1.0000 -0.0012
   3. (1.99850) BD ( 1) C  1- H  3
               ( 61.09%)   0.7816* C  1 s( 25.00%)p 3.00( 75.00%)
                                         0.0000  0.5000  0.0000 -0.5000  0.0000
                                        -0.5000  0.0000  0.5000  0.0000
               ( 38.91%)   0.6237* H  3 s(100.00%)
                                         1.0000 -0.0012
   4. (1.99850) BD ( 1) C  1- H  4
               ( 61.09%)   0.7816* C  1 s( 25.00%)p 3.00( 75.00%)
                                         0.0000  0.5000  0.0000 -0.5000  0.0000
                                         0.5000  0.0000 -0.5000  0.0000
               ( 38.91%)   0.6237* H  4 s(100.00%)
                                         1.0000 -0.0012
   5. (1.99850) BD ( 1) C  1- H  5
               ( 61.09%)   0.7816* C  1 s( 25.00%)p 3.00( 75.00%)
                                         0.0000  0.5000  0.0000  0.5000  0.0000
                                        -0.5000  0.0000 -0.5000  0.0000
               ( 38.91%)   0.6237* H  5 s(100.00%)
                                         1.0000 -0.0012
 ---------------- non-Lewis ----------------------------------------------------
   6. (0.00114) BD*( 1) C  1- H  2
               ( 38.91%)   0.6237* C  1 s( 25.00%)p 3.00( 75.00%)
                                         0.0000 -0.5000  0.0000 -0.5000  0.0000
                                        -0.5000  0.0000 -0.5000  0.0000
               ( 61.09%)  -0.7816* H  2 s(100.00%)
                                        -1.0000  0.0012
   7. (0.00114) BD*( 1) C  1- H  3
               ( 38.91%)   0.6237* C  1 s( 25.00%)p 3.00( 75.00%)
                                         0.0000 -0.5000  0.0000  0.5000  0.0000
                                         0.5000  0.0000 -0.5000  0.0000
               ( 61.09%)  -0.7816* H  3 s(100.00%)
                                        -1.0000  0.0012
   8. (0.00114) BD*( 1) C  1- H  4
               ( 38.91%)   0.6237* C  1 s( 25.00%)p 3.00( 75.00%)
                                         0.0000 -0.5000  0.0000  0.5000  0.0000
                                        -0.5000  0.0000  0.5000  0.0000
               ( 61.09%)  -0.7816* H  4 s(100.00%)
                                        -1.0000  0.0012
   9. (0.00114) BD*( 1) C  1- H  5
               ( 38.91%)   0.6237* C  1 s( 25.00%)p 3.00( 75.00%)
                                         0.0000 -0.5000  0.0000 -0.5000  0.0000
                                         0.5000  0.0000  0.5000  0.0000
               ( 61.09%)  -0.7816* H  5 s(100.00%)
                                        -1.0000  0.0012
  10. (0.00000) RY ( 1) C  1            s(100.00%)
  11. (0.00000) RY ( 2) C  1            s(  0.00%)p 1.00(100.00%)
  12. (0.00000) RY ( 3) C  1            s(  0.00%)p 1.00(100.00%)
  13. (0.00000) RY ( 4) C  1            s(  0.00%)p 1.00(100.00%)
  14. (0.00062) RY ( 1) H  2            s(100.00%)
                                         0.0012  1.0000
  15. (0.00062) RY ( 1) H  3            s(100.00%)
                                         0.0012  1.0000
  16. (0.00062) RY ( 1) H  4            s(100.00%)
                                         0.0012  1.0000
  17. (0.00062) RY ( 1) H  5            s(100.00%)
                                         0.0012  1.0000


 NHO DIRECTIONALITY AND BOND BENDING (deviation from line of nuclear centers at
                                      the position of maximum hybrid amplitude)

         [Thresholds for printing:  angular deviation  >  1.0 degree]
                                    p- or d-character  > 25.0%
                                    orbital occupancy  >  0.10e

                        Line of Centers        Hybrid 1             Hybrid 2
                        ---------------  -------------------  ------------------
           NBO            Theta   Phi    Theta   Phi    Dev   Theta   Phi    Dev
 ===============================================================================
    None exceeding thresholds


 SECOND ORDER PERTURBATION THEORY ANALYSIS OF FOCK MATRIX IN NBO BASIS

     Threshold for printing:   0.50 kcal/mol
                                                          E(2) E(NL)-E(L) F(L,NL)
      Donor (L) NBO              Acceptor (NL) NBO      kcal/mol   a.u.    a.u.
 ===============================================================================

 within unit  1
    1. CR ( 1) C  1            14. RY ( 1) H  2            1.57   11.93   0.122
    1. CR ( 1) C  1            15. RY ( 1) H  3            1.57   11.93   0.122
    1. CR ( 1) C  1            16. RY ( 1) H  4            1.57   11.93   0.122
    1. CR ( 1) C  1            17. RY ( 1) H  5            1.57   11.93   0.122
    2. BD ( 1) C  1- H  2       7. BD*( 1) C  1- H  3      0.68    1.40   0.028
    2. BD ( 1) C  1- H  2       8. BD*( 1) C  1- H  4      0.68    1.40   0.028
    2. BD ( 1) C  1- H  2       9. BD*( 1) C  1- H  5      0.68    1.40   0.028
    3. BD ( 1) C  1- H  3       6. BD*( 1) C  1- H  2      0.68    1.40   0.028
    3. BD ( 1) C  1- H  3       8. BD*( 1) C  1- H  4      0.68    1.40   0.028
    3. BD ( 1) C  1- H  3       9. BD*( 1) C  1- H  5      0.68    1.40   0.028
    4. BD ( 1) C  1- H  4       6. BD*( 1) C  1- H  2      0.68    1.40   0.028
    4. BD ( 1) C  1- H  4       7. BD*( 1) C  1- H  3      0.68    1.40   0.028
    4. BD ( 1) C  1- H  4       9. BD*( 1) C  1- H  5      0.68    1.40   0.028
    5. BD ( 1) C  1- H  5       6. BD*( 1) C  1- H  2      0.68    1.40   0.028
    5. BD ( 1) C  1- H  5       7. BD*( 1) C  1- H  3      0.68    1.40   0.028
    5. BD ( 1) C  1- H  5       8. BD*( 1) C  1- H  4      0.68    1.40   0.028


 NATURAL BOND ORBITALS (Summary):

                                                     Principal Delocalizations
           NBO                 Occupancy    Energy   (geminal,vicinal,remote)
 ===============================================================================
 Molecular unit  1  (CH4)
 ------ Lewis --------------------------------------
    1. CR ( 1) C  1             1.99894   -10.98763  14(v),15(v),16(v),17(v)
    2. BD ( 1) C  1- H  2       1.99850    -0.68380  7(g),8(g),9(g)
    3. BD ( 1) C  1- H  3       1.99850    -0.68380  6(g),8(g),9(g)
    4. BD ( 1) C  1- H  4       1.99850    -0.68380  6(g),7(g),9(g)
    5. BD ( 1) C  1- H  5       1.99850    -0.68380  6(g),7(g),8(g)
 ------ non-Lewis ----------------------------------
    6. BD*( 1) C  1- H  2       0.00114     0.72077
    7. BD*( 1) C  1- H  3       0.00114     0.72077
    8. BD*( 1) C  1- H  4       0.00114     0.72077
    9. BD*( 1) C  1- H  5       0.00114     0.72077
   10. RY ( 1) C  1             0.00000     1.93577
   11. RY ( 2) C  1             0.00000     0.98025
   12. RY ( 3) C  1             0.00000     0.98025
   13. RY ( 4) C  1             0.00000     0.98025
   14. RY ( 1) H  2             0.00062     0.94387
   15. RY ( 1) H  3             0.00062     0.94387
   16. RY ( 1) H  4             0.00062     0.94387
   17. RY ( 1) H  5             0.00062     0.94387
          -------------------------------
                 Total Lewis    9.99295  ( 99.9295%)
           Valence non-Lewis    0.00456  (  0.0456%)
           Rydberg non-Lewis    0.00249  (  0.0249%)
          -------------------------------
               Total unit  1   10.00000  (100.0000%)
              Charge unit  1    0.00000

 $CHOOSE
   BOND S 1 2 S 1 3 S 1 4 S 1 5 END
 $END

 Maximum scratch memory used by NBO was 63841 words
 Maximum scratch memory used by G09NBO was 9682 words

 Read Unf file /home/sara/bin/gaussian/scratch/Gau-7560.EUF:
 Label Gaussian matrix elements                                         IVers= 1 NLab= 2 Version=EM64L-G09RevD.01
 Title Title Card Required                                             
 NAtoms=     5 NBasis=    17 NBsUse=    17 ICharg=     0 Multip=     1 NE=    10 Len12L=8 Len4L=8
 Label GAUSSIAN SCALARS                                                 NI= 1 NR= 1 NTot=       1 LenBuf=    2000 N=    1000       1       1       1       1
 Label NPA CHARGES                                                      NI= 0 NR= 1 NTot=       5 LenBuf=    4000 N=       5       0       0       0       0
 Recovered energy= -39.9764058483     dipole=      0.000000000000      0.000000000000      0.000000000000
 1\1\GINC-LAPTOP\SP\RHF\3-21G\C1H4\SARA\23-Nov-2020\0\\# hf/3-21g pop=n
 bo6\\Title Card Required\\0,1\C,0,1.07476388,1.65994225,0.03580047\H,0
 ,1.4314183,0.65113225,0.03580047\H,0,1.43143672,2.16434044,0.90945197\
 H,0,1.43143672,2.16434044,-0.83785103\H,0,0.00476388,1.65995544,0.0358
 0047\\Version=EM64L-G09RevD.01\State=1-A\HF=-39.9764058\RMSD=2.299e-10
 \Dipole=0.,0.,0.\Quadrupole=0.,0.,0.,0.,0.,0.\PG=T [O(C1),4C3(H1)]\\@


 What some people mistake for the high cost
 of living is really the cost of living high.
                              -- Doug Larson
 Job cpu time:       0 days  0 hours  0 minutes  0.5 seconds.
 File lengths (MBytes):  RWF=      5 Int=      0 D2E=      0 Chk=      1 Scr=      1
 Normal termination of Gaussian 09 at Mon Nov 23 13:12:35 2020.
